 &FCI NORB= 8,NELEC= 4,ORBSYM= 1, 1, 1, 1, 1, 1, 1, 1, 
 ISYM= 0 ,
 TREL=.TRUE.
 &END
(0.6470568579811,-2.80721239251538e-16)   2   2   2   2
(0.0847407749528885,1.44320203312431e-05)   8   2   2   2
(0.0194183481533517,-0.00298656519639291)   4   2   4   2
(-0.0691990289315189,0.00838344999580485)   6   2   4   2
(-0.0691990289315189,0.00838344999580485)   4   2   6   2
(0.158499210238778,-0.0140669583637008)   6   2   6   2
(0.0847407749528885,1.44320203312431e-05)   2   2   8   2
(0.0634562120543659,2.16141887041745e-05)   8   2   8   2
(0.609574574574522,6.01077881550308e-17)   4   4   2   2
(-0.0172642139841197,-0.000549584975256744)   6   4   2   2
(0.0518290454971008,4.40186082029115e-17)   2   4   4   2
(0.0370149643235238,7.60390935419602e-06)   8   4   4   2
(-0.0579809989967486,-0.00185853400026356)   2   4   6   2
(-0.0708537747627338,-0.00228716437749151)   8   4   6   2
(0.0996985868484302,1.69794549536872e-05)   4   4   8   2
(-0.00872611914371993,-0.000280315758724387)   6   4   8   2
(-0.0172642139841197,0.00054958497525675)   4   6   2   2
(0.614140364357508,-2.06180561646993e-16)   6   6   2   2
(-0.0579809989967485,0.00185853400026343)   2   6   4   2
(-0.0277347830403707,0.000884355491021887)   8   6   4   2
(0.163371702739345,2.60208521396521e-18)   2   6   6   2
(0.0807985319288765,1.3628084483166e-05)   8   6   6   2
(-0.00399426145028559,0.000125428589849833)   4   6   8   2
(0.10148306825208,1.72833661148724e-05)   6   6   8   2
(0.0847407749528908,-1.44320203312229e-05)   2   8   2   2
(0.552595438111537,-2.24977228264487e-17)   8   8   2   2
(0.024650748627966,-0.00379756555859236)   4   8   4   2
(-0.0389558997279726,0.00472618405149489)   6   8   4   2
(-0.0747067495007623,0.00906734110805736)   4   8   6   2
(0.0763415724711609,-0.00678835237652991)   6   8   6   2
(0.0665161608392194,5.53281921146509e-18)   2   8   8   2
(0.0698397723441391,1.18942634670369e-05)   8   8   8   2
(0.0518290454971008,4.40186082029115e-17)   4   2   2   4
(-0.0579809989967486,-0.00185853400026356)   6   2   2   4
(0.609574574574522,6.01077881550308e-17)   2   2   4   4
(0.0996985868484302,1.69794549536872e-05)   8   2   4   4
(-0.0172642139841197,-0.000549584975256744)   2   2   6   4
(-0.00872611914371993,-0.000280315758724387)   8   2   6   4
(0.0370149643235238,7.60390935419602e-06)   4   2   8   4
(-0.0708537747627338,-0.00228716437749151)   6   2   8   4
(0.0194183481533512,0.00298656519639292)   2   4   2   4
(0.0246507486279688,0.00379756555859259)   8   4   2   4
(0.610496338293712,1.51082641453175e-16)   4   4   4   4
(-3.57508475021821e-05,-1.1380748064016e-06)   6   4   4   4
(-3.57508475021821e-05,-1.1380748064016e-06)   4   4   6   4
(-0.00014254320013532,-3.02055683746204e-05)   6   4   6   4
(0.0246507486279688,0.00379756555859259)   2   4   8   4
(0.040161388222888,0.00619623334235734)   8   4   8   4
(-0.0691990289315175,-0.0083834499958048)   2   6   2   4
(-0.0389558997279709,-0.00472618405149466)   8   6   2   4
(-3.57508475021738e-05,1.13807480619454e-06)   4   6   4   4
(0.612463372460822,-1.80848354990094e-17)   6   6   4   4
(0.0477255568644878,1.12485975395371e-17)   4   6   6   4
(-0.00356881087019087,-0.000113608688599398)   6   6   6   4
(-0.0747067495007696,-0.00906734110805739)   2   6   8   4
(-0.0538184092799575,-0.00654096095850189)   8   6   8   4
(0.0370149643235206,-7.60390935440158e-06)   4   8   2   4
(-0.0277347830403721,-0.000884355491021906)   6   8   2   4
(0.0996985868484325,-1.69794549537108e-05)   2   8   4   4
(0.53332928957718,1.63607576906176e-17)   8   8   4   4
(-0.00399426145028557,-0.000125428589850028)   2   8   6   4
(-0.0188696114869054,-0.000600690826529851)   8   8   6   4
(0.0507936770291322,-4.16333634234434e-16)   4   8   8   4
(-0.0446774539934167,-0.00143502046158653)   6   8   8   4
(-0.0579809989967485,0.00185853400026343)   4   2   2   6
(0.163371702739345,2.60208521396521e-18)   6   2   2   6
(-0.0172642139841197,0.00054958497525675)   2   2   4   6
(-0.00399426145028559,0.000125428589849833)   8   2   4   6
(0.614140364357508,-2.06180561646993e-16)   2   2   6   6
(0.10148306825208,1.72833661148724e-05)   8   2   6   6
(-0.0277347830403707,0.000884355491021887)   4   2   8   6
(0.0807985319288765,1.3628084483166e-05)   6   2   8   6
(-0.0691990289315175,-0.0083834499958048)   2   4   2   6
(-0.0747067495007696,-0.00906734110805739)   8   4   2   6
(-3.57508475021738e-05,1.13807480619454e-06)   4   4   4   6
(0.0477255568644878,1.12485975395371e-17)   6   4   4   6
(0.612463372460822,-1.80848354990094e-17)   4   4   6   6
(-0.00356881087019087,-0.000113608688599398)   6   4   6   6
(-0.0389558997279709,-0.00472618405149466)   2   4   8   6
(-0.0538184092799575,-0.00654096095850189)   8   4   8   6
(0.158499210238774,0.0140669583637004)   2   6   2   6
(0.0763415724711555,0.00678835237652907)   8   6   2   6
(-0.000142543200135375,3.02055683746129e-05)   4   6   4   6
(-0.00356881087019087,0.000113608688599195)   6   6   4   6
(-0.00356881087019087,0.000113608688599195)   4   6   6   6
(0.614973095979707,-1.85290363435337e-16)   6   6   6   6
(0.0763415724711555,0.00678835237652907)   2   6   8   6
(0.048935215485513,0.0043596460484118)   8   6   8   6
(-0.0708537747627242,0.00228716437749205)   4   8   2   6
(0.0807985319288795,-1.36280844835203e-05)   6   8   2   6
(-0.00872611914371994,0.000280315758724192)   2   8   4   6
(-0.0188696114869053,0.000600690826530573)   8   8   4   6
(0.101483068252082,-1.728336611493e-05)   2   8   6   6
(0.537628051777356,-2.06804218204134e-17)   8   8   6   6
(-0.0446774539934084,0.0014350204615869)   4   8   8   6
(0.0580675779641497,-1.92554305833426e-16)   6   8   8   6
(0.0847407749528908,-1.44320203312229e-05)   2   2   2   8
(0.0665161608392194,5.53281921146509e-18)   8   2   2   8
(0.024650748627966,-0.00379756555859236)   4   2   4   8
(-0.0747067495007623,0.00906734110805736)   6   2   4   8
(-0.0389558997279726,0.00472618405149489)   4   2   6   8
(0.0763415724711609,-0.00678835237652991)   6   2   6   8
(0.552595438111537,-2.24977228264487e-17)   2   2   8   8
(0.0698397723441391,1.18942634670369e-05)   8   2   8   8
(0.0996985868484325,-1.69794549537108e-05)   4   4   2   8
(-0.00399426145028557,-0.000125428589850028)   6   4   2   8
(0.0370149643235206,-7.60390935440158e-06)   2   4   4   8
(0.0507936770291322,-4.16333634234434e-16)   8   4   4   8
(-0.0277347830403721,-0.000884355491021906)   2   4   6   8
(-0.0446774539934167,-0.00143502046158653)   8   4   6   8
(0.53332928957718,1.63607576906176e-17)   4   4   8   8
(-0.0188696114869054,-0.000600690826529851)   6   4   8   8
(-0.00872611914371994,0.000280315758724192)   4   6   2   8
(0.101483068252082,-1.728336611493e-05)   6   6   2   8
(-0.0708537747627242,0.00228716437749205)   2   6   4   8
(-0.0446774539934084,0.0014350204615869)   8   6   4   8
(0.0807985319288795,-1.36280844835203e-05)   2   6   6   8
(0.0580675779641497,-1.92554305833426e-16)   8   6   6   8
(-0.0188696114869053,0.000600690826530573)   4   6   8   8
(0.537628051777356,-2.06804218204134e-17)   6   6   8   8
(0.0634562120543658,-2.16141887041633e-05)   2   8   2   8
(0.0698397723441412,-1.18942634669238e-05)   8   8   2   8
(0.040161388222878,-0.00619623334235664)   4   8   4   8
(-0.0538184092799549,0.00654096095850221)   6   8   4   8
(-0.0538184092799549,0.00654096095850221)   4   8   6   8
(0.0489352154855192,-0.00435964604841274)   6   8   6   8
(0.0698397723441412,-1.18942634669238e-05)   2   8   8   8
(0.511548690378104,2.72034887795771e-16)   8   8   8   8
(-2.80494196130601e-05,-3.29282959082736e-05)   8   1   2   2
(-0.00133412496731363,0.00584002798146263)   4   1   4   2
(-0.000148464319911915,0.000130473196419038)   6   1   4   2
(0.00170190767415025,-0.00648536890052057)   4   1   6   2
(0.000429670129672694,-0.000353836992574195)   6   1   6   2
(-2.20125095792506e-05,-2.58486943930314e-05)   8   1   8   2
(-0.000551136029795606,0.00197054045226042)   6   3   2   2
(0.00133412496731363,-0.00584002798146264)   2   3   4   2
(0.000943897555075917,-0.00417905104548256)   8   3   4   2
(-0.00170190767415024,0.0064853689005206)   2   3   6   2
(-0.00205293809091208,0.00795121306593639)   8   3   6   2
(-0.000266577228807205,0.000985146666266001)   6   3   8   2
(0.000551136029795607,-0.00197054045226044)   4   5   2   2
(0.000148464319911902,-0.000130473196419042)   2   5   4   2
(8.57543956064131e-05,-4.88235126748232e-05)   8   5   4   2
(-0.000429670129672666,0.0003538369925742)   2   5   6   2
(-0.000240434056365363,0.000147539607686616)   8   5   6   2
(0.000266577228807205,-0.000985146666265987)   4   5   8   2
(2.8049419613059e-05,3.29282959082736e-05)   2   7   2   2
(-0.000943897555075927,0.00417905104548262)   4   7   4   2
(-8.57543956064276e-05,4.88235126748131e-05)   6   7   4   2
(0.00205293809091212,-0.00795121306593658)   4   7   6   2
(0.0002404340563654,-0.000147539607686591)   6   7   6   2
(2.20125095792505e-05,2.58486943930312e-05)   2   7   8   2
(-0.000836370482417111,0.00211113797919378)   4   1   2   4
(-0.000200151723717188,0.000127833385724667)   6   1   2   4
(-3.3000494367365e-05,-3.87405383613347e-05)   8   1   4   4
(1.2730891906697e-06,1.59662307251454e-06)   8   1   6   4
(-0.00106243973228583,0.00267985142033404)   4   1   8   4
(-0.000216118753915819,0.000137942224484949)   6   1   8   4
(0.000836370482417106,-0.0021111379791938)   2   3   2   4
(0.0010500237323541,-0.00269442862449617)   8   3   2   4
(-1.14132806091058e-06,4.08040064449734e-06)   6   3   4   4
(0.000120126081373654,-8.94380164538962e-05)   6   3   6   4
(0.00106243973228582,-0.00267985142033405)   2   3   8   4
(0.00171494412675418,-0.00438583208391549)   8   3   8   4
(0.000200151723717177,-0.00012783338572467)   2   5   2   4
(0.000121525996941068,-6.08553656235241e-05)   8   5   2   4
(1.14132806091384e-06,-4.08040064450998e-06)   4   5   4   4
(-0.00012012608137365,8.94380164538941e-05)   4   5   6   4
(0.000216118753915806,-0.000137942224484953)   2   5   8   4
(0.000169937801863224,-8.15291693377281e-05)   8   5   8   4
(-0.00105002373235412,0.00269442862449623)   4   7   2   4
(-0.000121525996941082,6.08553656235132e-05)   6   7   2   4
(3.30004943673639e-05,3.87405383613347e-05)   2   7   4   4
(-1.2730891906697e-06,-1.59662307251453e-06)   2   7   6   4
(-0.00171494412675423,0.0043858320839155)   4   7   8   4
(-0.000169937801863242,8.15291693377135e-05)   6   7   8   4
(0.00272588755993226,-0.00758145640018369)   4   1   2   6
(0.000447322465683755,-0.000306292707456237)   6   1   2   6
(2.99611764928221e-06,3.29733568233948e-06)   8   1   4   6
(-3.3591162350595e-05,-3.9433942410985e-05)   8   1   6   6
(0.00153530369589858,-0.00426784513601739)   4   1   8   6
(0.000215482026717004,-0.000147494064711943)   6   1   8   6
(-0.00272588755993224,0.00758145640018373)   2   3   2   6
(-0.00292006085604293,0.00821159357543945)   8   3   2   6
(0.00122819773286499,-0.005377340749869)   6   3   4   6
(-0.000113929351082393,0.000407344540960745)   6   3   6   6
(-0.00153530369589857,0.0042678451360174)   2   3   8   6
(-0.00210681817738444,0.00591293516522949)   8   3   8   6
(-0.000447322465683727,0.000306292707456245)   2   5   2   6
(-0.00024222676233289,0.000116099023571968)   8   5   2   6
(-0.00122819773286498,0.005377340749869)   4   5   4   6
(0.000113929351082396,-0.000407344540960756)   4   5   6   6
(-0.000215482026716989,0.000147494064711949)   2   5   8   6
(-0.00015735953214701,7.19596770702121e-05)   8   5   8   6
(0.00292006085604298,-0.00821159357543963)   4   7   2   6
(0.000242226762332924,-0.000116099023571939)   6   7   2   6
(-2.9961176492822e-06,-3.29733568233946e-06)   2   7   4   6
(3.35911623505939e-05,3.9433942410985e-05)   2   7   6   6
(0.00210681817738449,-0.0059129351652295)   4   7   8   6
(0.00015735953214703,-7.19596770701961e-05)   6   7   8   6
(-2.10084898173493e-05,-2.46554942688164e-05)   8   1   2   8
(-0.00095194647577527,0.00417100490219899)   4   1   4   8
(-0.000181391897217405,0.000159474966415655)   6   1   4   8
(0.000813570301807725,-0.00310234518743674)   4   1   6   8
(0.000212472503224348,-0.000175031871570894)   6   1   6   8
(-2.31171486670798e-05,-2.71381081358606e-05)   8   1   8   8
(-0.000139592368065308,0.000466741202283972)   6   3   2   8
(0.000951946475775263,-0.00417100490219899)   2   3   4   8
(0.00129156813906544,-0.00573709701308411)   8   3   4   8
(-0.000813570301807717,0.00310234518743675)   2   3   6   8
(-0.0012911152944895,0.00501625327899934)   8   3   6   8
(-0.000602386101745314,0.00215378088051268)   6   3   8   8
(0.000139592368065308,-0.000466741202283957)   4   5   2   8
(0.000181391897217391,-0.000159474966415659)   2   5   4   8
(0.000134746506525352,-8.17956465427394e-05)   8   5   4   8
(-0.000212472503224334,0.000175031871570897)   2   5   6   8
(-0.000170607789223949,0.00010818711610156)   8   5   6   8
(0.000602386101745315,-0.0021537808805127)   4   5   8   8
(2.10084898173492e-05,2.46554942688162e-05)   2   7   2   8
(-0.00129156813906548,0.00573709701308414)   4   7   4   8
(-0.000134746506525372,8.17956465427268e-05)   6   7   4   8
(0.00129111529448955,-0.00501625327899936)   4   7   6   8
(0.00017060778922397,-0.000108187116101547)   6   7   6   8
(2.31171486670788e-05,2.71381081358606e-05)   2   7   8   8
(-0.00021634205215707,-0.000148582260026677)   4   1   4   1
(-9.13997385524113e-06,-2.58198743889129e-05)   6   1   4   1
(-9.13997385524113e-06,-2.58198743889129e-05)   4   1   6   1
(4.82238631137861e-07,-1.78190912985822e-06)   6   1   6   1
(-1.28382154600006e-07,-2.64413507122523e-08)   8   1   8   1
(0.000216342052157074,0.000148582260026677)   2   3   4   1
(0.000276573336284009,0.00018767206499799)   8   3   4   1
(9.13997385524139e-06,2.58198743889131e-05)   2   3   6   1
(1.02085450040112e-05,2.79427381871018e-05)   8   3   6   1
(2.24324476100147e-07,-1.00894601483565e-07)   6   3   8   1
(9.1399738552418e-06,2.58198743889117e-05)   2   5   4   1
(3.82189331964482e-06,1.52794038329172e-05)   8   5   4   1
(-4.82238631137763e-07,1.78190912985818e-06)   2   5   6   1
(-4.23757903219198e-07,8.20674081588281e-07)   8   5   6   1
(-2.24324476100149e-07,1.00894601483573e-07)   4   5   8   1
(-0.000276573336284011,-0.00018767206499799)   4   7   4   1
(-3.8218933196448e-06,-1.52794038329167e-05)   6   7   4   1
(-1.02085450040114e-05,-2.79427381871019e-05)   4   7   6   1
(4.2375790321916e-07,-8.20674081588235e-07)   6   7   6   1
(1.28382154600011e-07,2.64413507122561e-08)   2   7   8   1
(0.000216342052157074,0.000148582260026677)   4   1   2   3
(9.13997385524139e-06,2.58198743889131e-05)   6   1   2   3
(2.24324476100147e-07,-1.00894601483565e-07)   8   1   6   3
(0.000276573336284009,0.00018767206499799)   4   1   8   3
(1.02085450040112e-05,2.79427381871018e-05)   6   1   8   3
(-0.000216342052157078,-0.000148582260026677)   2   3   2   3
(-0.000276573336284015,-0.000187672064997991)   8   3   2   3
(-1.5511548559747e-05,-3.28648838149956e-05)   6   3   6   3
(-0.000276573336284015,-0.000187672064997991)   2   3   8   3
(-0.000452740608168363,-0.000304718500770621)   8   3   8   3
(-9.13997385524206e-06,-2.58198743889119e-05)   2   5   2   3
(-3.82189331964491e-06,-1.52794038329174e-05)   8   5   2   3
(1.55115485597467e-05,3.28648838149951e-05)   4   5   6   3
(-1.02085450040122e-05,-2.79427381871004e-05)   2   5   8   3
(-4.79414622784624e-06,-2.12525752947032e-05)   8   5   8   3
(0.000276573336284016,0.000187672064997991)   4   7   2   3
(3.82189331964489e-06,1.52794038329168e-05)   6   7   2   3
(-2.24324476100144e-07,1.00894601483565e-07)   2   7   6   3
(0.000452740608168371,0.00030471850077062)   4   7   8   3
(4.79414622784644e-06,2.12525752947024e-05)   6   7   8   3
(9.1399738552418e-06,2.58198743889117e-05)   4   1   2   5
(-4.82238631137763e-07,1.78190912985818e-06)   6   1   2   5
(-2.24324476100149e-07,1.00894601483573e-07)   8   1   4   5
(3.82189331964482e-06,1.52794038329172e-05)   4   1   8   5
(-4.23757903219198e-07,8.20674081588281e-07)   6   1   8   5
(-9.13997385524206e-06,-2.58198743889119e-05)   2   3   2   5
(-1.02085450040122e-05,-2.79427381871004e-05)   8   3   2   5
(1.55115485597467e-05,3.28648838149951e-05)   6   3   4   5
(-3.82189331964491e-06,-1.52794038329174e-05)   2   3   8   5
(-4.79414622784624e-06,-2.12525752947032e-05)   8   3   8   5
(4.82238631137666e-07,-1.78190912985814e-06)   2   5   2   5
(4.2375790321914e-07,-8.20674081588273e-07)   8   5   2   5
(-1.55115485597466e-05,-3.28648838149946e-05)   4   5   4   5
(4.2375790321914e-07,-8.20674081588273e-07)   2   5   8   5
(3.09049793826805e-07,-5.11161990610344e-07)   8   5   8   5
(1.02085450040123e-05,2.79427381871005e-05)   4   7   2   5
(-4.23757903219103e-07,8.20674081588227e-07)   6   7   2   5
(2.24324476100146e-07,-1.00894601483572e-07)   2   7   4   5
(4.79414622784645e-06,2.12525752947034e-05)   4   7   8   5
(-3.09049793826779e-07,5.11161990610328e-07)   6   7   8   5
(1.28382154600011e-07,2.64413507122561e-08)   8   1   2   7
(-0.000276573336284011,-0.00018767206499799)   4   1   4   7
(-1.02085450040114e-05,-2.79427381871019e-05)   6   1   4   7
(-3.8218933196448e-06,-1.52794038329167e-05)   4   1   6   7
(4.2375790321916e-07,-8.20674081588235e-07)   6   1   6   7
(-2.24324476100144e-07,1.00894601483565e-07)   6   3   2   7
(0.000276573336284016,0.000187672064997991)   2   3   4   7
(0.000452740608168371,0.00030471850077062)   8   3   4   7
(3.82189331964489e-06,1.52794038329168e-05)   2   3   6   7
(4.79414622784644e-06,2.12525752947024e-05)   8   3   6   7
(2.24324476100146e-07,-1.00894601483572e-07)   4   5   2   7
(1.02085450040123e-05,2.79427381871005e-05)   2   5   4   7
(4.79414622784645e-06,2.12525752947034e-05)   8   5   4   7
(-4.23757903219103e-07,8.20674081588227e-07)   2   5   6   7
(-3.09049793826779e-07,5.11161990610328e-07)   8   5   6   7
(-1.28382154600017e-07,-2.64413507122599e-08)   2   7   2   7
(-0.000452740608168378,-0.000304718500770619)   4   7   4   7
(-4.79414622784665e-06,-2.12525752947025e-05)   6   7   4   7
(-4.79414622784665e-06,-2.12525752947025e-05)   4   7   6   7
(3.09049793826753e-07,-5.11161990610313e-07)   6   7   6   7
(0.000836370482417106,0.0021111379791938)   4   2   3   2
(-0.00272588755993224,-0.00758145640018373)   6   2   3   2
(0.000200151723717177,0.00012783338572467)   4   2   5   2
(-0.000447322465683727,-0.000306292707456245)   6   2   5   2
(2.8049419613059e-05,-3.29282959082736e-05)   2   2   7   2
(2.10084898173492e-05,-2.46554942688162e-05)   8   2   7   2
(0.00133412496731363,0.00584002798146264)   2   4   3   2
(0.000951946475775263,0.00417100490219899)   8   4   3   2
(0.000148464319911902,0.000130473196419042)   2   4   5   2
(0.000181391897217391,0.000159474966415659)   8   4   5   2
(3.30004943673639e-05,-3.87405383613347e-05)   4   4   7   2
(-2.9961176492822e-06,3.29733568233946e-06)   6   4   7   2
(-0.00170190767415024,-0.0064853689005206)   2   6   3   2
(-0.000813570301807717,-0.00310234518743675)   8   6   3   2
(-0.000429670129672666,-0.0003538369925742)   2   6   5   2
(-0.000212472503224334,-0.000175031871570897)   8   6   5   2
(-1.2730891906697e-06,1.59662307251453e-06)   4   6   7   2
(3.35911623505939e-05,-3.9433942410985e-05)   6   6   7   2
(0.00106243973228582,0.00267985142033405)   4   8   3   2
(-0.00153530369589857,-0.0042678451360174)   6   8   3   2
(0.000216118753915806,0.000137942224484953)   4   8   5   2
(-0.000215482026716989,-0.000147494064711949)   6   8   5   2
(2.20125095792505e-05,-2.58486943930312e-05)   2   8   7   2
(2.31171486670788e-05,-2.71381081358606e-05)   8   8   7   2
(-0.000836370482417111,-0.00211113797919378)   4   2   1   4
(0.00272588755993226,0.00758145640018369)   6   2   1   4
(0.000551136029795607,0.00197054045226044)   2   2   5   4
(0.000139592368065308,0.000466741202283957)   8   2   5   4
(-0.00105002373235412,-0.00269442862449623)   4   2   7   4
(0.00292006085604298,0.00821159357543963)   6   2   7   4
(-0.00133412496731363,-0.00584002798146263)   2   4   1   4
(-0.00095194647577527,-0.00417100490219899)   8   4   1   4
(1.14132806091384e-06,4.08040064450998e-06)   4   4   5   4
(-0.00122819773286498,-0.005377340749869)   6   4   5   4
(-0.000943897555075927,-0.00417905104548262)   2   4   7   4
(-0.00129156813906548,-0.00573709701308414)   8   4   7   4
(0.00170190767415025,0.00648536890052057)   2   6   1   4
(0.000813570301807725,0.00310234518743674)   8   6   1   4
(-0.00012012608137365,-8.94380164538941e-05)   4   6   5   4
(0.000113929351082396,0.000407344540960756)   6   6   5   4
(0.00205293809091212,0.00795121306593658)   2   6   7   4
(0.00129111529448955,0.00501625327899936)   8   6   7   4
(-0.00106243973228583,-0.00267985142033404)   4   8   1   4
(0.00153530369589858,0.00426784513601739)   6   8   1   4
(0.000266577228807205,0.000985146666265987)   2   8   5   4
(0.000602386101745315,0.0021537808805127)   8   8   5   4
(-0.00171494412675423,-0.0043858320839155)   4   8   7   4
(0.00210681817738449,0.0059129351652295)   6   8   7   4
(-0.000200151723717188,-0.000127833385724667)   4   2   1   6
(0.000447322465683755,0.000306292707456237)   6   2   1   6
(-0.000551136029795606,-0.00197054045226042)   2   2   3   6
(-0.000139592368065308,-0.000466741202283972)   8   2   3   6
(-0.000121525996941082,-6.08553656235132e-05)   4   2   7   6
(0.000242226762332924,0.000116099023571939)   6   2   7   6
(-0.000148464319911915,-0.000130473196419038)   2   4   1   6
(-0.000181391897217405,-0.000159474966415655)   8   4   1   6
(-1.14132806091058e-06,-4.08040064449734e-06)   4   4   3   6
(0.00122819773286499,0.005377340749869)   6   4   3   6
(-8.57543956064276e-05,-4.88235126748131e-05)   2   4   7   6
(-0.000134746506525372,-8.17956465427268e-05)   8   4   7   6
(0.000429670129672694,0.000353836992574195)   2   6   1   6
(0.000212472503224348,0.000175031871570894)   8   6   1   6
(0.000120126081373654,8.94380164538962e-05)   4   6   3   6
(-0.000113929351082393,-0.000407344540960745)   6   6   3   6
(0.0002404340563654,0.000147539607686591)   2   6   7   6
(0.00017060778922397,0.000108187116101547)   8   6   7   6
(-0.000216118753915819,-0.000137942224484949)   4   8   1   6
(0.000215482026717004,0.000147494064711943)   6   8   1   6
(-0.000266577228807205,-0.000985146666266001)   2   8   3   6
(-0.000602386101745314,-0.00215378088051268)   8   8   3   6
(-0.000169937801863242,-8.15291693377135e-05)   4   8   7   6
(0.00015735953214703,7.19596770701961e-05)   6   8   7   6
(-2.80494196130601e-05,3.29282959082736e-05)   2   2   1   8
(-2.10084898173493e-05,2.46554942688164e-05)   8   2   1   8
(0.0010500237323541,0.00269442862449617)   4   2   3   8
(-0.00292006085604293,-0.00821159357543945)   6   2   3   8
(0.000121525996941068,6.08553656235241e-05)   4   2   5   8
(-0.00024222676233289,-0.000116099023571968)   6   2   5   8
(-3.3000494367365e-05,3.87405383613347e-05)   4   4   1   8
(2.99611764928221e-06,-3.29733568233948e-06)   6   4   1   8
(0.000943897555075917,0.00417905104548256)   2   4   3   8
(0.00129156813906544,0.00573709701308411)   8   4   3   8
(8.57543956064131e-05,4.88235126748232e-05)   2   4   5   8
(0.000134746506525352,8.17956465427394e-05)   8   4   5   8
(1.2730891906697e-06,-1.59662307251454e-06)   4   6   1   8
(-3.3591162350595e-05,3.9433942410985e-05)   6   6   1   8
(-0.00205293809091208,-0.00795121306593639)   2   6   3   8
(-0.0012911152944895,-0.00501625327899934)   8   6   3   8
(-0.000240434056365363,-0.000147539607686616)   2   6   5   8
(-0.000170607789223949,-0.00010818711610156)   8   6   5   8
(-2.20125095792506e-05,2.58486943930314e-05)   2   8   1   8
(-2.31171486670798e-05,2.71381081358606e-05)   8   8   1   8
(0.00171494412675418,0.00438583208391549)   4   8   3   8
(-0.00210681817738444,-0.00591293516522949)   6   8   3   8
(0.000169937801863224,8.15291693377281e-05)   4   8   5   8
(-0.00015735953214701,-7.19596770702121e-05)   6   8   5   8
(0.647056857981106,-1.39935601143071e-16)   2   2   1   1
(0.0847407749528906,1.44320203311903e-05)   8   2   1   1
(0.0518290454971009,-3.07913416985883e-17)   4   2   3   1
(-0.0579809989967489,-0.00185853400026336)   6   2   3   1
(-0.0579809989967493,0.00185853400026347)   4   2   5   1
(0.163371702739347,-5.55111512312578e-17)   6   2   5   1
(0.0847407749528921,-1.44320203311043e-05)   2   2   7   1
(0.0665161608392201,2.5417764681207e-17)   8   2   7   1
(0.609574574574529,1.69407823495342e-16)   4   4   1   1
(-0.0172642139841197,-0.000549584975256738)   6   4   1   1
(0.0194183481533514,0.00298656519639287)   2   4   3   1
(0.024650748627969,0.00379756555859252)   8   4   3   1
(-0.0691990289315183,-0.00838344999580486)   2   4   5   1
(-0.0747067495007708,-0.00906734110805751)   8   4   5   1
(0.0996985868484337,-1.69794549536006e-05)   4   4   7   1
(-0.0039942614502856,-0.000125428589850028)   6   4   7   1
(-0.0172642139841198,0.000549584975256736)   4   6   1   1
(0.614140364357515,-9.79002375640609e-17)   6   6   1   1
(-0.0691990289315178,-0.00838344999580462)   2   6   3   1
(-0.038955899727971,-0.00472618405149458)   8   6   3   1
(0.158499210238776,0.0140669583637005)   2   6   5   1
(0.0763415724711568,0.00678835237652916)   8   6   5   1
(-0.00872611914372001,0.000280315758724177)   4   6   7   1
(0.101483068252083,-1.72833661148179e-05)   6   6   7   1
(0.084740774952893,-1.44320203312778e-05)   2   8   1   1
(0.552595438111544,4.03774277281594e-16)   8   8   1   1
(0.0370149643235207,-7.60390935449591e-06)   4   8   3   1
(-0.0277347830403722,-0.000884355491021814)   6   8   3   1
(-0.0708537747627254,0.00228716437749211)   4   8   5   1
(0.0807985319288808,-1.3628084483552e-05)   6   8   5   1
(0.0634562120543665,-2.16141887041456e-05)   2   8   7   1
(0.0698397723441417,-1.18942634665769e-05)   8   8   7   1
(0.0194183481533515,-0.00298656519639288)   4   2   1   3
(-0.0691990289315184,0.00838344999580476)   6   2   1   3
(0.609574574574515,-2.15915122125704e-17)   2   2   3   3
(0.0996985868484268,1.69794549536262e-05)   8   2   3   3
(-0.0172642139841197,0.000549584975257008)   2   2   5   3
(-0.00399426145028558,0.000125428589849782)   8   2   5   3
(0.0246507486279673,-0.0037975655585924)   4   2   7   3
(-0.0747067495007659,0.00906734110805735)   6   2   7   3
(0.0518290454971006,5.05238212378245e-17)   2   4   1   3
(0.0370149643235236,7.60390935431897e-06)   8   4   1   3
(0.610496338293701,1.29834580738891e-16)   4   4   3   3
(-3.57508475021707e-05,-1.13807480642129e-06)   6   4   3   3
(-3.57508475021265e-05,1.13807480643331e-06)   4   4   5   3
(0.0477255568644878,1.08199988682264e-17)   6   4   5   3
(0.0370149643235219,-7.60390935423917e-06)   2   4   7   3
(0.0507936770291336,-2.64545330086463e-16)   8   4   7   3
(-0.057980998996748,0.0018585340002634)   2   6   1   3
(-0.0277347830403705,0.000884355491021758)   8   6   1   3
(-3.57508475021667e-05,1.13807480621605e-06)   4   6   3   3
(0.612463372460811,-3.99529333453316e-17)   6   6   3   3
(-0.000142543200135372,3.02055683746153e-05)   4   6   5   3
(-0.00356881087019082,0.000113608688599431)   6   6   5   3
(-0.0708537747627277,0.00228716437749172)   2   6   7   3
(-0.0446774539934098,0.00143502046158679)   8   6   7   3
(0.0246507486279658,-0.00379756555859221)   4   8   1   3
(-0.0389558997279724,0.00472618405149474)   6   8   1   3
(0.0996985868484291,-1.69794549537655e-05)   2   8   3   3
(0.533329289577174,1.21939018014994e-16)   8   8   3   3
(-0.00872611914371993,0.00028031575872414)   2   8   5   3
(-0.0188696114869056,0.000600690826530666)   8   8   5   3
(0.0401613882228794,-0.00619623334235671)   4   8   7   3
(-0.0538184092799564,0.00654096095850222)   6   8   7   3
(-0.0691990289315189,0.00838344999580482)   4   2   1   5
(0.158499210238778,-0.0140669583637007)   6   2   1   5
(-0.0172642139841197,-0.000549584975256978)   2   2   3   5
(-0.00872611914372,-0.000280315758724284)   8   2   3   5
(0.614140364357511,-2.28620509379299e-16)   2   2   5   5
(0.101483068252075,1.72833661148632e-05)   8   2   5   5
(-0.0389558997279717,0.00472618405149462)   4   2   7   5
(0.0763415724711582,-0.00678835237652927)   6   2   7   5
(-0.0579809989967486,-0.00185853400026357)   2   4   1   5
(-0.0708537747627337,-0.0022871643774915)   8   4   1   5
(-3.57508475021605e-05,-1.138074806478e-06)   4   4   3   5
(-0.000142543200135351,-3.02055683746121e-05)   6   4   3   5
(0.612463372460825,-2.56838461653757e-17)   4   4   5   5
(-0.00356881087019083,-0.000113608688599386)   6   4   5   5
(-0.027734783040371,-0.000884355491022015)   2   4   7   5
(-0.0446774539934146,-0.00143502046158671)   8   4   7   5
(0.163371702739345,5.11743425413158e-17)   2   6   1   5
(0.0807985319288764,1.36280844831695e-05)   8   6   1   5
(0.0477255568644878,-5.08389174942031e-18)   4   6   3   5
(-0.00356881087019084,-0.000113608688599472)   6   6   3   5
(-0.00356881087019082,0.000113608688599187)   4   6   5   5
(0.614973095979709,-1.93320012380291e-16)   6   6   5   5
(0.0807985319288767,-1.36280844831179e-05)   2   6   7   5
(0.0580675779641474,8.54351311918577e-17)   8   6   7   5
(-0.0747067495007622,0.00906734110805735)   4   8   1   5
(0.0763415724711608,-0.0067883523765299)   6   8   1   5
(-0.00399426145028565,-0.000125428589849925)   2   8   3   5
(-0.0188696114869053,-0.000600690826529864)   8   8   3   5
(0.101483068252077,-1.72833661149398e-05)   2   8   5   5
(0.537628051777361,-1.90657336294681e-16)   8   8   5   5
(-0.0538184092799528,0.0065409609585017)   4   8   7   5
(0.0489352154855169,-0.00435964604841226)   6   8   7   5
(0.0847407749528938,1.44320203311596e-05)   2   2   1   7
(0.0634562120543662,2.16141887041246e-05)   8   2   1   7
(0.0370149643235209,7.60390935445254e-06)   4   2   3   7
(-0.0708537747627255,-0.00228716437749197)   6   2   3   7
(-0.0277347830403726,0.000884355491021956)   4   2   5   7
(0.0807985319288816,1.362808448313e-05)   6   2   5   7
(0.552595438111497,-1.82344929914945e-17)   2   2   7   7