 &FCI NORB= 10,NELEC= 7,ORBSYM= 1, 1, 1, 1, 1, 1, 1, 1, 1, 1, 
 ISYM= 0 ,
 TREL=.TRUE.
 &END
(0.946023656281876,-3.36144108347245e-16)   2   2   2   2
(0.00264431798406389,2.12158860833039e-05)   4   2   2   2
(-0.00279202568598333,-0.000178444257557679)   6   2   2   2
(0.0015553052475352,7.86000075496153e-07)   8   2   2   2
(-0.00171246765743238,-5.44314688654467e-05)  10   2   2   2
(0.00264431798406389,2.12158860833039e-05)   2   2   4   2
(0.0169376445015794,-0.0215560379540285)   4   2   4   2
(0.000646229113754007,0.000451854058999979)   6   2   4   2
(0.00241795797167827,0.00309487640007336)   8   2   4   2
(0.000584002767499046,-0.000639051429831728)  10   2   4   2
(-0.00279202568598333,-0.000178444257557679)   2   2   6   2
(0.000646229113754007,0.000451854058999979)   4   2   6   2
(0.00204289582614396,-0.00391101358866829)   6   2   6   2
(-0.00548314426008898,-0.0069135856421441)   8   2   6   2
(0.0012101858393094,-0.00156522710838671)  10   2   6   2
(0.0015553052475352,7.86000075496153e-07)   2   2   8   2
(0.00241795797167827,0.00309487640007336)   4   2   8   2
(-0.00548314426008898,-0.0069135856421441)   6   2   8   2
(0.0114989473146458,0.00265900216973996)   8   2   8   2
(-0.015417645696349,-0.0082127852811019)  10   2   8   2
(-0.00171246765743238,-5.44314688654467e-05)   2   2  10   2
(0.000584002767499046,-0.000639051429831728)   4   2  10   2
(0.0012101858393094,-0.00156522710838671)   6   2  10   2
(-0.015417645696349,-0.0082127852811019)   8   2  10   2
(-5.79006521398877e-05,0.00224638225464616)  10   2  10   2
(0.00264431798406396,-2.12158860833227e-05)   2   4   2   2
(0.86317480875054,-8.14068979805266e-16)   4   4   2   2
(0.00143034278897593,-0.000626705607429379)   6   4   2   2
(0.00214384280664752,-0.00205171212839741)   8   4   2   2
(0.00138247971952575,-0.00159714739943042)  10   4   2   2
(0.0279369181028468,0)   2   4   4   2
(-0.00196023962970343,6.07262823225892e-05)   4   4   4   2
(3.86695696299671e-05,-0.000376447041144025)   6   4   4   2
(-5.08442591660642e-05,-0.000931994618475748)   8   4   4   2
(0.0007236987347431,-0.00100441770691034)  10   4   4   2
(-0.000978567578481763,-0.000293920426706258)   2   4   6   2
(-4.63622094503924e-05,0.000348238921846569)   4   4   6   2
(-0.00274043528578873,-0.000813273418849446)   6   4   6   2
(-0.000283403104614005,0.00149845568658856)   8   4   6   2
(-0.00242440506093961,0.000856780860165424)  10   4   6   2
(-0.000241943445133316,0.000621698811459917)   2   4   8   2
(0.00218381698826118,0.000860090954136474)   4   4   8   2
(0.000616152855463344,0.00134875825692706)   6   4   8   2
(0.00495955316710367,-0.00260364629804358)   8   4   8   2
(5.11829675449828e-05,0.00187165979054689)  10   4   8   2
(-0.000864486950830378,-0.000103285025485089)   2   4  10   2
(-0.00192653444940003,-0.000646970739788587)   4   4  10   2
(-0.00357686776693459,-0.00101036569680902)   6   4  10   2
(-0.000721115859577197,0.000689815369757558)   8   4  10   2
(-0.00303399964841419,0.0021236653215677)  10   4  10   2
(-0.00279202568598335,0.000178444257557733)   2   6   2   2
(0.00143034278897587,0.000626705607429686)   4   6   2   2
(0.894780529946887,-2.28205237308051e-16)   6   6   2   2
(-0.00238005777914786,0.000240918685080082)   8   6   2   2
(0.00585791170200751,0.00329955821856285)  10   6   2   2
(-0.000978567578481763,0.000293920426706255)   2   6   4   2
(-0.000298549911003223,0.000579716541859893)   4   6   4   2
(-0.000183927582713337,0.000334765157795375)   6   6   4   2
(-0.00502491249831437,-0.00668555179066103)   8   6   4   2
(0.00431026333056871,-0.00569632303137356)  10   6   4   2
(0.00740270181524691,8.67361737988404e-19)   2   6   6   2
(-0.00155631587239655,0.000963340714820565)   4   6   6   2
(0.00329927654358991,-5.77348748089862e-05)   6   6   6   2
(0.000309831296165213,-0.00139514181200565)   8   6   6   2
(-0.000934286391703588,0.000829866054813391)  10   6   6   2
(-0.000305014062288209,0.000924871924859325)   2   6   8   2
(0.00433277369732337,0.00103861109504509)   4   6   8   2
(0.000127815931067565,-0.000314419626606881)   6   6   8   2
(0.00424427931944494,0.000464727244174938)   8   6   8   2
(0.00739630981106761,0.00358719237767962)  10   6   8   2
(0.00801903223729563,-0.00124260811864793)   2   6  10   2
(-0.00081278658997201,0.000812342666119166)   4   6  10   2
(0.000156222480395134,-0.000419009141832818)   6   6  10   2
(-0.00107408462905878,-0.000980241256839714)   8   6  10   2
(-0.000294385311871063,0.000125676612376811)  10   6  10   2
(0.00155530524753504,-7.86000075498764e-07)   2   8   2   2
(0.00214384280664742,0.00205171212839772)   4   8   2   2
(-0.00238005777914783,-0.000240918685079827)   6   8   2   2
(0.893398106973764,-1.80003127057072e-16)   8   8   2   2
(0.00579124575669539,0.00278759138166701)  10   8   2   2
(-0.000241943445133318,-0.000621698811459917)   2   8   4   2
(0.0019479143700929,0.00132635663086676)   4   8   4   2
(0.00230777312304905,0.00870472323591104)   6   8   4   2
(0.000634285831162783,-0.000203575184126722)   8   8   4   2
(0.00283565441665594,0.00900426933138229)  10   8   4   2
(-0.000305014062288199,-0.00092487192485934)   2   8   6   2
(-0.00196172397724746,-0.00307756637092917)   4   8   6   2
(0.000786367659422836,-0.0006427039254239)   6   8   6   2
(-0.00162830215264499,0.000825666479362164)   8   8   6   2
(0.0047331556760342,0.00021370820166361)  10   8   6   2
(0.0276403846851346,9.54097911787244e-18)   2   8   8   2
(3.52794357989781e-05,0.000552254241984149)   4   8   8   2
(0.00419465098614312,0.00138408436787723)   6   8   8   2
(0.00255399321549961,0.00139785999605585)   8   8   8   2
(0.0066106456557964,-0.000684545680173695)  10   8   8   2
(-0.00309811513353798,-0.00303494117739976)   2   8  10   2
(-0.00243502132281662,-0.00369016491504328)   4   8  10   2
(-0.000195490069636034,0.000342017152118836)   6   8  10   2
(-0.00280451823736712,-0.000332563533415068)   8   8  10   2
(0.00276163549913127,0.00190137925853713)  10   8  10   2
(-0.00171246765743254,5.44314688657876e-05)   2  10   2   2
(0.00138247971952583,0.00159714739943062)   4  10   2   2
(0.00585791170200771,-0.00329955821856257)   6  10   2   2
(0.00579124575669453,-0.00278759138166722)   8  10   2   2
(0.895319269597124,2.48168142873893e-16)  10  10   2   2
(-0.000864486950830372,0.000103285025485081)   2  10   4   2
(0.000104887885426593,-0.00050006596449184)   4  10   4   2
(0.00832915568950241,-5.00911982896017e-05)   6  10   4   2
(-0.00402351821142502,-0.0070456456952204)   8  10   4   2
(0.000239772611704817,2.12629658437595e-05)  10  10   4   2
(0.00801903223729563,0.00124260811864794)   2  10   6   2
(-0.00119305995809239,0.000515171541957226)   4  10   6   2
(-0.00415073257815344,-0.000241908458707053)   6  10   6   2
(0.00196957420322085,-0.0038152347801057)   8  10   6   2
(0.00136565616515307,0.000538815744499185)  10  10   6   2
(-0.00309811513353798,0.00303494117739974)   2  10   8   2
(0.0022600352222828,0.00385018268939499)   4  10   8   2
(0.00139668663882949,0.00166371458414319)   6  10   8   2
(0.000681568665356742,0.00157919000186428)   8  10   8   2
(0.000144348286233849,0.000271816417565339)  10  10   8   2
(0.014349476889102,6.72205346941013e-18)   2  10  10   2
(-0.00101646099356052,0.00116299864372255)   4  10  10   2
(-0.00440065098169832,0.000354500179632806)   6  10  10   2
(-0.000957586964586221,-0.00228268817945061)   8  10  10   2
(-0.000774263486301426,-0.000157073797826254)  10  10  10   2
(0.00264431798406396,-2.12158860833227e-05)   2   2   2   4
(0.0279369181028468,0)   4   2   2   4
(-0.000978567578481763,-0.000293920426706258)   6   2   2   4
(-0.000241943445133316,0.000621698811459917)   8   2   2   4
(-0.000864486950830378,-0.000103285025485089)  10   2   2   4
(0.86317480875054,-8.14068979805266e-16)   2   2   4   4
(-0.00196023962970343,6.07262823225892e-05)   4   2   4   4
(-4.63622094503924e-05,0.000348238921846569)   6   2   4   4
(0.00218381698826118,0.000860090954136474)   8   2   4   4
(-0.00192653444940003,-0.000646970739788587)  10   2   4   4
(0.00143034278897593,-0.000626705607429379)   2   2   6   4
(3.86695696299671e-05,-0.000376447041144025)   4   2   6   4
(-0.00274043528578873,-0.000813273418849446)   6   2   6   4
(0.000616152855463344,0.00134875825692706)   8   2   6   4
(-0.00357686776693459,-0.00101036569680902)  10   2   6   4
(0.00214384280664752,-0.00205171212839741)   2   2   8   4
(-5.08442591660642e-05,-0.000931994618475748)   4   2   8   4
(-0.000283403104614005,0.00149845568658856)   6   2   8   4
(0.00495955316710367,-0.00260364629804358)   8   2   8   4
(-0.000721115859577197,0.000689815369757558)  10   2   8   4
(0.00138247971952575,-0.00159714739943042)   2   2  10   4
(0.0007236987347431,-0.00100441770691034)   4   2  10   4
(-0.00242440506093961,0.000856780860165424)   6   2  10   4
(5.11829675449828e-05,0.00187165979054689)   8   2  10   4
(-0.00303399964841419,0.0021236653215677)  10   2  10   4
(0.0169376445015794,0.0215560379540285)   2   4   2   4
(-0.00196023962970339,-6.07262823226198e-05)   4   4   2   4
(-0.000298549911003222,-0.000579716541859909)   6   4   2   4
(0.00194791437009291,-0.00132635663086679)   8   4   2   4
(0.0001048878854266,0.000500065964491838)  10   4   2   4
(-0.00196023962970339,-6.07262823226198e-05)   2   4   4   4
(0.944042672572718,-1.22870938077224e-15)   4   4   4   4
(0.00240475815801383,0.00104544923250837)   6   4   4   4
(0.000997163813588478,0.000702152592310288)   8   4   4   4
(0.000700916562622411,-0.000490779859319117)  10   4   4   4
(-0.000298549911003222,-0.000579716541859909)   2   4   6   4
(0.00240475815801383,0.00104544923250837)   4   4   6   4
(0.00491119396806321,0.00339937272287434)   6   4   6   4
(0.00692483726047891,-0.00801322029476506)   8   4   6   4
(0.00591837197686593,0.00436439470965438)  10   4   6   4
(0.00194791437009291,-0.00132635663086679)   2   4   8   4
(0.000997163813588478,0.000702152592310288)   4   4   8   4
(0.00692483726047891,-0.00801322029476506)   6   4   8   4
(-0.0010057537849576,0.00446599253106701)   8   4   8   4
(0.00271477752347396,-0.0160433791064055)  10   4   8   4
(0.0001048878854266,0.000500065964491838)   2   4  10   4
(0.000700916562622411,-0.000490779859319117)   4   4  10   4
(0.00591837197686593,0.00436439470965438)   6   4  10   4
(0.00271477752347396,-0.0160433791064055)   8   4  10   4
(0.005695509959084,0.00157921948569015)  10   4  10   4
(0.000646229113754007,-0.000451854058999982)   2   6   2   4
(3.86695696299837e-05,0.000376447041144022)   4   6   2   4
(-0.000183927582713233,-0.000334765157795367)   6   6   2   4
(0.00230777312304904,-0.00870472323591104)   8   6   2   4
(0.00832915568950242,5.00911982896147e-05)  10   6   2   4
(-4.63622094504384e-05,-0.000348238921846549)   2   6   4   4
(0.00240475815801378,-0.00104544923250798)   4   6   4   4
(0.894390463317218,-6.72841363143458e-16)   6   6   4   4
(0.00261458538177642,-0.000264679022501434)   8   6   4   4
(-0.0054894225247031,-0.0033188211083017)  10   6   4   4
(-0.00155631587239655,-0.000963340714820561)   2   6   6   4
(0.011477477810937,-1.51788304147971e-18)   4   6   6   4
(-0.00276775053882408,-0.0016462815132795)   6   6   6   4
(-5.60460572717322e-05,0.000520118747123009)   8   6   6   4
(0.00669610618290877,0.00262656459749232)  10   6   6   4
(-0.00196172397724745,0.00307756637092917)   2   6   8   4
(0.000406605976318917,-0.00643840418840582)   4   6   8   4
(-0.000585938696350719,0.0010356930475941)   6   6   8   4
(-0.000412976503777861,-0.000542854168894767)   8   6   8   4
(-0.00144249484841314,-0.00134959451143885)  10   6   8   4
(-0.0011930599580924,-0.000515171541957226)   2   6  10   4
(0.00631865368233233,-0.00652868770663492)   4   6  10   4
(-0.000567123492068537,-0.00013685430403261)   6   6  10   4
(0.000682047298732766,0.000528962038251145)   8   6  10   4
(0.00518749974829269,-0.00359352671980721)  10   6  10   4
(0.00241795797167828,-0.00309487640007336)   2   8   2   4
(-5.08442591660512e-05,0.000931994618475729)   4   8   2   4
(-0.00502491249831437,0.00668555179066103)   6   8   2   4
(0.000634285831162865,0.000203575184126719)   8   8   2   4
(-0.00402351821142501,0.00704564569522044)  10   8   2   4
(0.002183816988261,-0.000860090954136436)   2   8   4   4
(0.000997163813588267,-0.000702152592310009)   4   8   4   4
(0.00261458538177637,0.000264679022501734)   6   8   4   4
(0.894773783797656,-6.28828838354028e-16)   8   8   4   4
(-0.00522440690662936,-0.00283010089279495)  10   8   4   4
(0.00433277369732336,-0.00103861109504508)   2   8   6   4
(0.000406605976318908,0.00643840418840582)   4   8   6   4
(0.000390751085322983,0.000269439157224552)   6   8   6   4
(0.00342429551739943,-0.000180508042047897)   8   8   6   4
(-0.000594484512720677,-0.0014672541144501)  10   8   6   4
(3.52794357990011e-05,-0.000552254241984158)   2   8   8   4
(0.0211384636811884,5.20417042793042e-18)   4   8   8   4
(-0.00131733938040098,-0.00076177682163307)   6   8   8   4
(0.00402226751620684,-0.00434104419447627)   8   8   8   4
(-0.00831860464289979,0.00368295278870995)  10   8   8   4
(0.00226003522228278,-0.00385018268939499)   2   8  10   4
(-0.00382286449965075,0.00202290795678352)   4   8  10   4
(0.000874008556378448,0.000183703041497208)   6   8  10   4
(0.00182560341739297,-0.00140403856150064)   8   8  10   4
(0.000989874410548683,-0.00258860726722762)  10   8  10   4
(0.000584002767499049,0.000639051429831726)   2  10   2   4
(0.000723698734743103,0.00100441770691034)   4  10   2   4
(0.00431026333056867,0.00569632303137355)   6  10   2   4
(0.00283565441665592,-0.00900426933138228)   8  10   2   4
(0.000239772611704906,-2.12629658437425e-05)  10  10   2   4
(-0.00192653444940023,0.000646970739788895)   2  10   4   4
(0.000700916562622525,0.000490779859319406)   4  10   4   4
(-0.00548942252470297,0.0033188211083019)   6  10   4   4
(-0.00522440690663012,0.00283010089279476)   8  10   4   4
(0.891670193715893,-2.02007898010635e-16)  10  10   4   4
(-0.00081278658997201,-0.000812342666119169)   2  10   6   4
(0.00631865368233233,0.00652868770663492)   4  10   6   4
(0.00161247026084744,0.00171717469520954)   6  10   6   4
(-0.00598171832846532,0.00180238926884185)   8  10   6   4
(-0.000527200864249877,-0.00103655197077504)  10  10   6   4
(-0.00243502132281663,0.00369016491504329)   2  10   8   4
(-0.00382286449965076,-0.00202290795678351)   4  10   8   4
(0.00329160244929943,-0.00782462552021898)   6  10   8   4
(0.000280204420095107,0.000406946980226888)   8  10   8   4
(0.0010542472316391,-0.0009597628001666)  10  10   8   4
(-0.00101646099356053,-0.00116299864372256)   2  10  10   4
(0.0169365735532802,-1.53956708492942e-17)   4  10  10   4
(0.00247429765754137,0.00240653781063971)   6  10  10   4
(-0.00125474656502264,0.00470220963536823)   8  10  10   4
(0.000286105986266039,-0.000647313796495291)  10  10  10   4
(-0.00279202568598335,0.000178444257557733)   2   2   2   6
(-0.000978567578481763,0.000293920426706255)   4   2   2   6
(0.00740270181524691,8.67361737988404e-19)   6   2   2   6
(-0.000305014062288209,0.000924871924859325)   8   2   2   6
(0.00801903223729563,-0.00124260811864793)  10   2   2   6
(0.00143034278897587,0.000626705607429686)   2   2   4   6
(-0.000298549911003223,0.000579716541859893)   4   2   4   6
(-0.00155631587239655,0.000963340714820565)   6   2   4   6
(0.00433277369732337,0.00103861109504509)   8   2   4   6
(-0.00081278658997201,0.000812342666119166)  10   2   4   6
(0.894780529946887,-2.28205237308051e-16)   2   2   6   6
(-0.000183927582713337,0.000334765157795375)   4   2   6   6
(0.00329927654358991,-5.77348748089862e-05)   6   2   6   6
(0.000127815931067565,-0.000314419626606881)   8   2   6   6
(0.000156222480395134,-0.000419009141832818)  10   2   6   6
(-0.00238005777914786,0.000240918685080082)   2   2   8   6
(-0.00502491249831437,-0.00668555179066103)   4   2   8   6
(0.000309831296165213,-0.00139514181200565)   6   2   8   6
(0.00424427931944494,0.000464727244174938)   8   2   8   6
(-0.00107408462905878,-0.000980241256839714)  10   2   8   6
(0.00585791170200751,0.00329955821856285)   2   2  10   6
(0.00431026333056871,-0.00569632303137356)   4   2  10   6
(-0.000934286391703588,0.000829866054813391)   6   2  10   6
(0.00739630981106761,0.00358719237767962)   8   2  10   6
(-0.000294385311871063,0.000125676612376811)  10   2  10   6
(0.000646229113754007,-0.000451854058999982)   2   4   2   6
(-4.63622094504384e-05,-0.000348238921846549)   4   4   2   6
(-0.00155631587239655,-0.000963340714820561)   6   4   2   6
(-0.00196172397724745,0.00307756637092917)   8   4   2   6
(-0.0011930599580924,-0.000515171541957226)  10   4   2   6
(3.86695696299837e-05,0.000376447041144022)   2   4   4   6
(0.00240475815801378,-0.00104544923250798)   4   4   4   6
(0.011477477810937,-1.51788304147971e-18)   6   4   4   6
(0.000406605976318917,-0.00643840418840582)   8   4   4   6
(0.00631865368233233,-0.00652868770663492)  10   4   4   6
(-0.000183927582713233,-0.000334765157795367)   2   4   6   6
(0.894390463317218,-6.72841363143458e-16)   4   4   6   6
(-0.00276775053882408,-0.0016462815132795)   6   4   6   6
(-0.000585938696350719,0.0010356930475941)   8   4   6   6
(-0.000567123492068537,-0.00013685430403261)  10   4   6   6
(0.00230777312304904,-0.00870472323591104)   2   4   8   6
(0.00261458538177642,-0.000264679022501434)   4   4   8   6
(-5.60460572717322e-05,0.000520118747123009)   6   4   8   6
(-0.000412976503777861,-0.000542854168894767)   8   4   8   6
(0.000682047298732766,0.000528962038251145)  10   4   8   6
(0.00832915568950242,5.00911982896147e-05)   2   4  10   6
(-0.0054894225247031,-0.0033188211083017)   4   4  10   6
(0.00669610618290877,0.00262656459749232)   6   4  10   6
(-0.00144249484841314,-0.00134959451143885)   8   4  10   6
(0.00518749974829269,-0.00359352671980721)  10   4  10   6
(0.00204289582614397,0.00391101358866829)   2   6   2   6
(-0.00274043528578873,0.000813273418849449)   4   6   2   6
(0.00329927654358984,5.77348748090433e-05)   6   6   2   6
(0.000786367659422836,0.000642703925423892)   8   6   2   6
(-0.00415073257815344,0.000241908458707056)  10   6   2   6
(-0.00274043528578873,0.000813273418849449)   2   6   4   6
(0.00491119396806322,-0.00339937272287435)   4   6   4   6
(-0.00276775053882412,0.00164628151327985)   6   6   4   6
(0.000390751085322989,-0.00026943915722455)   8   6   4   6
(0.00161247026084746,-0.00171717469520956)  10   6   4   6
(0.00329927654358984,5.77348748090433e-05)   2   6   6   6
(-0.00276775053882412,0.00164628151327985)   4   6   6   6
(0.930299828658116,-2.2950955591068e-16)   6   6   6   6
(0.0018478529994627,-0.000692818911098913)   8   6   6   6
(-0.00860021055777406,-0.00174200431698842)  10   6   6   6
(0.000786367659422836,0.000642703925423892)   2   6   8   6
(0.000390751085322989,-0.00026943915722455)   4   6   8   6
(0.0018478529994627,-0.000692818911098913)   6   6   8   6
(-0.000756980091247098,0.00148832228669299)   8   6   8   6
(-0.00276641458831407,-0.0102160970001045)  10   6   8   6
(-0.00415073257815344,0.000241908458707056)   2   6  10   6
(0.00161247026084746,-0.00171717469520956)   4   6  10   6
(-0.00860021055777406,-0.00174200431698842)   6   6  10   6
(-0.00276641458831407,-0.0102160970001045)   8   6  10   6
(0.00790813238585772,-0.00968977415751864)  10   6  10   6
(-0.00548314426008899,0.00691358564214409)   2   8   2   6
(-0.000283403104614008,-0.00149845568658857)   4   8   2   6
(0.000309831296165218,0.00139514181200565)   6   8   2   6
(-0.00162830215264505,-0.000825666479362111)   8   8   2   6
(0.00196957420322085,0.00381523478010569)  10   8   2   6
(0.000616152855463351,-0.00134875825692705)   2   8   4   6
(0.00692483726047891,0.00801322029476507)   4   8   4   6
(-5.60460572717058e-05,-0.000520118747122999)   6   8   4   6
(0.00342429551739941,0.000180508042048252)   8   8   4   6
(-0.00598171832846531,-0.00180238926884183)  10   8   4   6
(0.000127815931067387,0.000314419626606931)   2   8   6   6
(-0.000585938696350787,-0.00103569304759384)   4   8   6   6
(0.00184785299946269,0.000692818911099241)   6   8   6   6
(0.907175910176654,-2.26722738722739e-16)   8   8   6   6
(0.0115648561560303,0.00332196476881672)  10   8   6   6
(0.00419465098614312,-0.00138408436787724)   2   8   8   6
(-0.001317339380401,0.000761776821633055)   4   8   8   6
(0.0216532830420959,-5.31259064517897e-18)   6   8   8   6
(-0.00083417936169632,0.000552899099254813)   8   8   8   6
(0.0213503705432031,-0.00618405330965438)  10   8   8   6
(0.00139668663882951,-0.00166371458414319)   2   8  10   6
(0.00329160244929942,0.00782462552021897)   4   8  10   6
(0.00618740857132435,0.00516537527225783)   6   8  10   6
(0.00783317038563091,0.00118349645756985)   8   8  10   6
(-0.00371680403264074,0.000220802955986647)  10   8  10   6
(0.00121018583930941,0.00156522710838672)   2  10   2   6
(-0.00242440506093961,-0.000856780860165413)   4  10   2   6
(-0.000934286391703593,-0.000829866054813385)   6  10   2   6
(0.00473315567603419,-0.000213708201663618)   8  10   2   6
(0.00136565616515302,-0.000538815744499134)  10  10   2   6
(-0.0035768677669346,0.00101036569680902)   2  10   4   6
(0.00591837197686593,-0.00436439470965438)   4  10   4   6
(0.00669610618290877,-0.00262656459749232)   6  10   4   6
(-0.000594484512720672,0.00146725411445013)   8  10   4   6
(-0.000527200864249925,0.00103655197077538)  10  10   4   6
(0.000156222480394961,0.000419009141833186)   2  10   6   6
(-0.000567123492068496,0.000136854304032863)   4  10   6   6
(-0.00860021055777393,0.00174200431698884)   6  10   6   6
(0.0115648561560295,-0.00332196476881692)   8  10   6   6
(0.920333381488587,2.40179961146007e-16)  10  10   6   6
(-0.000195490069636036,-0.000342017152118844)   2  10   8   6
(0.000874008556378441,-0.000183703041497186)   4  10   8   6
(0.00618740857132436,-0.00516537527225783)   6  10   8   6
(-0.00251438613864692,0.00512631371563683)   8  10   8   6
(-0.000873864983946633,-5.73492057021575e-05)  10  10   8   6
(-0.00440065098169832,-0.000354500179632812)   2  10  10   6
(0.00247429765754137,-0.00240653781063972)   4  10  10   6
(0.0332034363683126,-2.51534904016637e-17)   6  10  10   6
(0.00393169282613327,-0.00482337642190825)   8  10  10   6
(-0.00144269738170074,-5.3321018202193e-05)  10  10  10   6
(0.00155530524753504,-7.86000075498764e-07)   2   2   2   8
(-0.000241943445133318,-0.000621698811459917)   4   2   2   8
(-0.000305014062288199,-0.00092487192485934)   6   2   2   8
(0.0276403846851346,9.54097911787244e-18)   8   2   2   8
(-0.00309811513353798,-0.00303494117739976)  10   2   2   8
(0.00214384280664742,0.00205171212839772)   2   2   4   8
(0.0019479143700929,0.00132635663086676)   4   2   4   8
(-0.00196172397724746,-0.00307756637092917)   6   2   4   8
(3.52794357989781e-05,0.000552254241984149)   8   2   4   8
(-0.00243502132281662,-0.00369016491504328)  10   2   4   8
(-0.00238005777914783,-0.000240918685079827)   2   2   6   8
(0.00230777312304905,0.00870472323591104)   4   2   6   8
(0.000786367659422836,-0.0006427039254239)   6   2   6   8
(0.00419465098614312,0.00138408436787723)   8   2   6   8
(-0.000195490069636034,0.000342017152118836)  10   2   6   8
(0.893398106973764,-1.80003127057072e-16)   2   2   8   8
(0.000634285831162783,-0.000203575184126722)   4   2   8   8
(-0.00162830215264499,0.000825666479362164)   6   2   8   8
(0.00255399321549961,0.00139785999605585)   8   2   8   8
(-0.00280451823736712,-0.000332563533415068)  10   2   8   8
(0.00579124575669539,0.00278759138166701)   2   2  10   8
(0.00283565441665594,0.00900426933138229)   4   2  10   8
(0.0047331556760342,0.00021370820166361)   6   2  10   8
(0.0066106456557964,-0.000684545680173695)   8   2  10   8
(0.00276163549913127,0.00190137925853713)  10   2  10   8
(0.00241795797167828,-0.00309487640007336)   2   4   2   8
(0.002183816988261,-0.000860090954136436)   4   4   2   8
(0.00433277369732336,-0.00103861109504508)   6   4   2   8
(3.52794357990011e-05,-0.000552254241984158)   8   4   2   8
(0.00226003522228278,-0.00385018268939499)  10   4   2   8
(-5.08442591660512e-05,0.000931994618475729)   2   4   4   8
(0.000997163813588267,-0.000702152592310009)   4   4   4   8
(0.000406605976318908,0.00643840418840582)   6   4   4   8
(0.0211384636811884,5.20417042793042e-18)   8   4   4   8
(-0.00382286449965075,0.00202290795678352)  10   4   4   8
(-0.00502491249831437,0.00668555179066103)   2   4   6   8
(0.00261458538177637,0.000264679022501734)   4   4   6   8
(0.000390751085322983,0.000269439157224552)   6   4   6   8
(-0.00131733938040098,-0.00076177682163307)   8   4   6   8
(0.000874008556378448,0.000183703041497208)  10   4   6   8
(0.000634285831162865,0.000203575184126719)   2   4   8   8
(0.894773783797656,-6.28828838354028e-16)   4   4   8   8
(0.00342429551739943,-0.000180508042047897)   6   4   8   8
(0.00402226751620684,-0.00434104419447627)   8   4   8   8
(0.00182560341739297,-0.00140403856150064)  10   4   8   8
(-0.00402351821142501,0.00704564569522044)   2   4  10   8
(-0.00522440690662936,-0.00283010089279495)   4   4  10   8
(-0.000594484512720677,-0.0014672541144501)   6   4  10   8
(-0.00831860464289979,0.00368295278870995)   8   4  10   8
(0.000989874410548683,-0.00258860726722762)  10   4  10   8
(-0.00548314426008899,0.00691358564214409)   2   6   2   8
(0.000616152855463351,-0.00134875825692705)   4   6   2   8
(0.000127815931067387,0.000314419626606931)   6   6   2   8
(0.00419465098614312,-0.00138408436787724)   8   6   2   8
(0.00139668663882951,-0.00166371458414319)  10   6   2   8
(-0.000283403104614008,-0.00149845568658857)   2   6   4   8
(0.00692483726047891,0.00801322029476507)   4   6   4   8
(-0.000585938696350787,-0.00103569304759384)   6   6   4   8
(-0.001317339380401,0.000761776821633055)   8   6   4   8
(0.00329160244929942,0.00782462552021897)  10   6   4   8
(0.000309831296165218,0.00139514181200565)   2   6   6   8
(-5.60460572717058e-05,-0.000520118747122999)   4   6   6   8
(0.00184785299946269,0.000692818911099241)   6   6   6   8
(0.0216532830420959,-5.31259064517897e-18)   8   6   6   8
(0.00618740857132435,0.00516537527225783)  10   6   6   8
(-0.00162830215264505,-0.000825666479362111)   2   6   8   8
(0.00342429551739941,0.000180508042048252)   4   6   8   8
(0.907175910176654,-2.26722738722739e-16)   6   6   8   8
(-0.00083417936169632,0.000552899099254813)   8   6   8   8
(0.00783317038563091,0.00118349645756985)  10   6   8   8
(0.00196957420322085,0.00381523478010569)   2   6  10   8
(-0.00598171832846531,-0.00180238926884183)   4   6  10   8
(0.0115648561560303,0.00332196476881672)   6   6  10   8
(0.0213503705432031,-0.00618405330965438)   8   6  10   8
(-0.00371680403264074,0.000220802955986647)  10   6  10   8
(0.0114989473146459,-0.00265900216973994)   2   8   2   8
(0.00495955316710365,0.00260364629804356)   4   8   2   8
(0.00424427931944494,-0.000464727244174931)   6   8   2   8
(0.00255399321549946,-0.0013978599960558)   8   8   2   8
(0.000681568665356713,-0.00157919000186426)  10   8   2   8
(0.00495955316710365,0.00260364629804356)   2   8   4   8
(-0.00100575378495759,-0.004465992531067)   4   8   4   8
(-0.000412976503777862,0.000542854168894777)   6   8   4   8
(0.00402226751620676,0.00434104419447649)   8   8   4   8
(0.000280204420095103,-0.000406946980226892)  10   8   4   8
(0.00424427931944494,-0.000464727244174931)   2   8   6   8
(-0.000412976503777862,0.000542854168894777)   4   8   6   8
(-0.000756980091247108,-0.00148832228669298)   6   8   6   8
(-0.000834179361696312,-0.00055289909925453)   8   8   6   8
(-0.00251438613864694,-0.0051263137156368)  10   8   6   8
(0.00255399321549946,-0.0013978599960558)   2   8   8   8
(0.00402226751620676,0.00434104419447649)   4   8   8   8
(-0.000834179361696312,-0.00055289909925453)   6   8   8   8
(0.928365437769583,-1.4861586307412e-16)   8   8   8   8
(-0.0105295541131022,-0.00351587699568338)  10   8   8   8
(0.000681568665356713,-0.00157919000186426)   2   8  10   8
(0.000280204420095103,-0.000406946980226892)   4   8  10   8
(-0.00251438613864694,-0.0051263137156368)   6   8  10   8
(-0.0105295541131022,-0.00351587699568338)   8   8  10   8
(0.00175004381722644,-5.38651158862146e-05)  10   8  10   8
(-0.015417645696349,0.00821278528110189)   2  10   2   8
(5.11829675449911e-05,-0.00187165979054687)   4  10   2   8
(0.0073963098110676,-0.00358719237767961)   6  10   2   8
(0.00661064565579638,0.000684545680173705)   8  10   2   8
(0.000144348286233713,-0.000271816417565281)  10  10   2   8
(-0.000721115859577199,-0.000689815369757559)   2  10   4   8
(0.00271477752347397,0.0160433791064055)   4  10   4   8
(-0.00144249484841314,0.00134959451143884)   6  10   4   8
(-0.00831860464289984,-0.00368295278870995)   8  10   4   8
(0.00105424723163903,0.00095976280016683)  10  10   4   8
(-0.00107408462905878,0.000980241256839712)   2  10   6   8
(0.000682047298732775,-0.000528962038251137)   4  10   6   8
(-0.00276641458831407,0.0102160970001045)   6  10   6   8
(0.0213503705432031,0.00618405330965438)   8  10   6   8
(-0.000873864983946653,5.73492057024947e-05)  10  10   6   8
(-0.00280451823736726,0.000332563533415453)   2  10   8   8
(0.00182560341739304,0.0014040385615009)   4  10   8   8
(0.00783317038563105,-0.00118349645756947)   6  10   8   8
(-0.0105295541131031,0.0035158769956831)   8  10   8   8
(0.91471018207203,2.92284042902876e-16)  10  10   8   8
(-0.000957586964586249,0.00228268817945058)   2  10  10   8
(-0.00125474656502263,-0.00470220963536822)   4  10  10   8
(0.00393169282613328,0.00482337642190823)   6  10  10   8
(0.0453717938645806,-7.27770708280895e-18)   8  10  10   8
(0.00278114366276525,0.00131864270243825)  10  10  10   8
(-0.00171246765743254,5.44314688657876e-05)   2   2   2  10
(-0.000864486950830372,0.000103285025485081)   4   2   2  10
(0.00801903223729563,0.00124260811864794)   6   2   2  10