 &FCI NORB= 4,NELEC= 2,ORBSYM= 1, 1, 1, 1, 
 ISYM= 0 ,
 TREL=.TRUE.
 &END
(0.578940302836546,1.87878809928807e-17)   1   1   1   1
(0.0186492945681,0.0115088671504957)   3   1   3   1
(0.401264968906587,-3.00682769775466e-17)   3   3   1   1
(0.0219146118164935,-4.33680868994202e-18)   1   3   3   1
(0.0219146118164935,-4.33680868994202e-18)   3   1   1   3
(0.401264968906587,-3.00682769775466e-17)   1   1   3   3
(0.0186492945681001,-0.0115088671504957)   1   3   1   3
(0.353275036530352,-4.98809553961189e-17)   3   3   3   3
(0.0348835800526917,0.0114537565965746)   3   2   3   1
(0.0367030987477464,0.00096707795567255)   1   4   3   1
(0.0357010167296726,-0.00857263680798902)   3   2   1   3
(0.0317421489229473,-0.0184523353297224)   1   4   1   3
(0.0613092388707081,0.00501338989949015)   3   2   3   2
(0.0601711936180459,-0.0127821871270117)   1   4   3   2
(0.0601711936180459,-0.0127821871270117)   3   2   1   4
(0.0539767750928711,-0.0295036370592572)   1   4   1   4
(0.0317421489229473,0.0184523353297224)   3   1   4   1
(0.0367030987477464,-0.00096707795567255)   1   3   4   1
(0.0357010167296726,0.00857263680798902)   3   1   2   3
(0.0348835800526917,-0.0114537565965746)   1   3   2   3
(0.578940302835605,2.87486626160847e-17)   1   1   2   2
(-0.0209938351889642,-0.00628562607269433)   3   1   4   2
(0.401264968906268,-3.28391734380757e-17)   3   3   2   2
(-0.0211667291150626,0.00567624784030911)   1   3   4   2
(-0.0211667291150626,-0.0056762478403091)   3   1   2   4
(0.401264968905527,4.91828006372905e-17)   1   1   4   4
(-0.0209938351889642,0.00628562607269435)   1   3   2   4
(0.353275036529834,2.10806402250727e-17)   3   3   4   4
(0.0589292737565445,0.0176436261519173)   4   1   3   2
(0.0615138752582044,1.86482773667507e-17)   2   3   3   2
(0.0615138752578867,-6.93889390390723e-18)   4   1   1   4
(0.0589292737565445,-0.0176436261519173)   2   3   1   4
(-0.0366598166310474,-0.00202744715115224)   4   2   3   2
(-0.0367030987478232,-0.000967077955673817)   2   4   3   2
(-0.0357010167295631,0.00857263680796196)   4   2   1   4
(-0.0354383414568387,0.00960086726532328)   2   4   1   4
(0.0539767750928711,0.0295036370592572)   4   1   4   1
(0.0601711936180459,0.0127821871270117)   2   3   4   1
(0.0601711936180459,0.0127821871270117)   4   1   2   3
(0.0613092388707081,-0.00501338989949015)   2   3   2   3
(-0.0354383414568387,-0.00960086726532328)   4   1   4   2
(-0.0367030987478232,0.000967077955673817)   2   3   4   2
(-0.0357010167295631,-0.00857263680796196)   4   1   2   4
(-0.0366598166310474,0.00202744715115224)   2   3   2   4
(0.578940302834663,3.87094442379225e-17)   2   2   2   2
(0.0219054573255046,0.000633364298868677)   4   2   4   2
(0.401264968905207,4.64119041766005e-17)   4   4   2   2
(0.0219146118164721,-3.79470760369927e-18)   2   4   4   2
(0.0219146118164721,-3.79470760369927e-18)   4   2   2   4
(0.401264968905207,4.64119041766005e-17)   2   2   4   4
(0.0219054573255046,-0.000633364298868685)   2   4   2   4
(0.353275036529316,9.2042235846353e-17)   4   4   4   4
(-1.10413887380282,0)   1   1   0   0
(-0.57556013345072,5.42101086242752e-20)   3   3   0   0
(-1.10413887380188,-2.77555756156289e-17)   2   2   0   0
(-0.575560133449182,0)   4   4   0   0
(0.52917721067,0.0)   0   0   0   0
